LAMMPS data file. msi2lmp v3.9.9 / 05 Nov 2018 / CGCMM for 0001001111001110

    188 atoms
    187 bonds
    372 angles
    549 dihedrals
    248 impropers

   4 atom types
   7 bond types
  15 angle types
  20 dihedral types
  13 improper types

     0.157852332    71.357852332 xlo xhi
     -16.071436287    24.071436287 ylo yhi
     -15.220521633    25.220521633 zlo zhi

Masses

   1  12.011150 # c3
   2  12.011150 # c2
   3  12.011150 # c1
   4   1.007970 # hc

Pair Coeffs # lj/class2/coul/long

   1   0.0540000000   4.0100000000 # c3
   2   0.0540000000   4.0100000000 # c2
   3   0.0540000000   4.0100000000 # c1
   4   0.0200000000   2.9950000000 # hc

Bond Coeffs # class2

   1     1.5300   299.6700  -501.7700   679.8100 # c3-c2
   2     1.1010   345.0000  -691.8900   844.6000 # c3-hc
   3     1.1010   345.0000  -691.8900   844.6000 # c2-hc
   4     1.5300   299.6700  -501.7700   679.8100 # c2-c2
   5     1.5300   299.6700  -501.7700   679.8100 # c2-c1
   6     1.1010   345.0000  -691.8900   844.6000 # c1-hc
   7     1.5300   299.6700  -501.7700   679.8100 # c3-c1

Angle Coeffs # class2

   1   110.7700    41.4530   -10.6040     5.1290 # c2-c3-hc
   2   107.6600    39.6410   -12.9210    -2.4318 # hc-c3-hc
   3   110.7700    41.4530   -10.6040     5.1290 # c3-c2-hc
   4   112.6700    39.5160    -7.4430    -9.5583 # c3-c2-c2
   5   107.6600    39.6410   -12.9210    -2.4318 # hc-c2-hc
   6   110.7700    41.4530   -10.6040     5.1290 # c2-c2-hc
   7   112.6700    39.5160    -7.4430    -9.5583 # c2-c2-c2
   8   112.6700    39.5160    -7.4430    -9.5583 # c2-c2-c1
   9   110.7700    41.4530   -10.6040     5.1290 # c1-c2-hc
  10   110.7700    41.4530   -10.6040     5.1290 # c2-c1-hc
  11   112.6700    39.5160    -7.4430    -9.5583 # c2-c1-c2
  12   112.6700    39.5160    -7.4430    -9.5583 # c3-c1-c2
  13   110.7700    41.4530   -10.6040     5.1290 # c3-c1-hc
  14   110.7700    41.4530   -10.6040     5.1290 # c1-c3-hc
  15   112.6700    39.5160    -7.4430    -9.5583 # c1-c2-c1

Dihedral Coeffs # class2

   1    -0.1432     0.0000     0.0617     0.0000    -0.1083     0.0000# hc-c3-c2-hc
   2     0.0000     0.0000     0.0316     0.0000    -0.1681     0.0000# hc-c3-c2-c2
   3     0.0000     0.0000     0.0316     0.0000    -0.1681     0.0000# c3-c2-c2-hc
   4     0.0000     0.0000     0.0514     0.0000    -0.1430     0.0000# c3-c2-c2-c2
   5    -0.1432     0.0000     0.0617     0.0000    -0.1083     0.0000# hc-c2-c2-hc
   6     0.0000     0.0000     0.0316     0.0000    -0.1681     0.0000# c2-c2-c2-hc
   7     0.0000     0.0000     0.0514     0.0000    -0.1430     0.0000# c2-c2-c2-c2
   8     0.0000     0.0000     0.0514     0.0000    -0.1430     0.0000# c2-c2-c2-c1
   9     0.0000     0.0000     0.0316     0.0000    -0.1681     0.0000# c1-c2-c2-hc
  10     0.0000     0.0000     0.0316     0.0000    -0.1681     0.0000# c2-c2-c1-hc
  11     0.0000     0.0000     0.0514     0.0000    -0.1430     0.0000# c2-c2-c1-c2
  12     0.0000     0.0000     0.0514     0.0000    -0.1430     0.0000# c2-c2-c1-c3
  13    -0.1432     0.0000     0.0617     0.0000    -0.1083     0.0000# hc-c2-c1-hc
  14     0.0000     0.0000     0.0316     0.0000    -0.1681     0.0000# hc-c2-c1-c2
  15     0.0000     0.0000     0.0316     0.0000    -0.1681     0.0000# hc-c2-c1-c3
  16     0.0000     0.0000     0.0316     0.0000    -0.1681     0.0000# hc-c3-c1-c2
  17    -0.1432     0.0000     0.0617     0.0000    -0.1083     0.0000# hc-c3-c1-hc
  18     0.0000     0.0000     0.0514     0.0000    -0.1430     0.0000# c1-c2-c1-c2
  19     0.0000     0.0000     0.0316     0.0000    -0.1681     0.0000# c1-c2-c1-hc
  20     0.0000     0.0000     0.0514     0.0000    -0.1430     0.0000# c1-c2-c1-c3

Improper Coeffs # class2

  1     0.0000     0.0000 
  2     0.0000     0.0000 
  3     0.0000     0.0000 
  4     0.0000     0.0000 
  5     0.0000     0.0000 
  6     0.0000     0.0000 
  7     0.0000     0.0000 
  8     0.0000     0.0000 
  9     0.0000     0.0000 
 10     0.0000     0.0000 
 11     0.0000     0.0000 
 12     0.0000     0.0000 
 13     0.0000     0.0000 

BondBond Coeffs

  1     3.3872     1.5300     1.1010 
  2     5.3316     1.1010     1.1010 
  3     3.3872     1.5300     1.1010 
  4     0.0000     1.5300     1.5300 
  5     5.3316     1.1010     1.1010 
  6     3.3872     1.5300     1.1010 
  7     0.0000     1.5300     1.5300 
  8     0.0000     1.5300     1.5300 
  9     3.3872     1.5300     1.1010 
 10     3.3872     1.5300     1.1010 
 11     0.0000     1.5300     1.5300 
 12     0.0000     1.5300     1.5300 
 13     3.3872     1.5300     1.1010 
 14     3.3872     1.5300     1.1010 
 15     0.0000     1.5300     1.5300 

BondAngle Coeffs

  1    20.7540    11.4210     1.5300     1.1010 
  2    18.1030    18.1030     1.1010     1.1010 
  3    20.7540    11.4210     1.5300     1.1010 
  4     8.0160     8.0160     1.5300     1.5300 
  5    18.1030    18.1030     1.1010     1.1010 
  6    20.7540    11.4210     1.5300     1.1010 
  7     8.0160     8.0160     1.5300     1.5300 
  8     8.0160     8.0160     1.5300     1.5300 
  9    20.7540    11.4210     1.5300     1.1010 
 10    20.7540    11.4210     1.5300     1.1010 
 11     8.0160     8.0160     1.5300     1.5300 
 12     8.0160     8.0160     1.5300     1.5300 
 13    20.7540    11.4210     1.5300     1.1010 
 14    20.7540    11.4210     1.5300     1.1010 
 15     8.0160     8.0160     1.5300     1.5300 

AngleAngle Coeffs

  1     0.2738    -0.4825     0.2738   110.7700   107.6600   110.7700 
  2    -0.3157    -0.3157    -0.3157   107.6600   107.6600   107.6600 
  3     0.2738    -0.4825     0.2738   110.7700   107.6600   110.7700 
  4    -1.3199    -1.3199     0.1184   112.6700   110.7700   110.7700 
  5     0.2738    -0.4825     0.2738   110.7700   107.6600   110.7700 
  6    -1.3199    -1.3199     0.1184   112.6700   110.7700   110.7700 
  7    -1.3199    -1.3199     0.1184   112.6700   110.7700   110.7700 
  8     0.2738    -0.4825     0.2738   110.7700   107.6600   110.7700 
  9    -1.3199    -1.3199     0.1184   112.6700   110.7700   110.7700 
 10    -1.3199    -1.3199     0.1184   112.6700   110.7700   110.7700 
 11    -0.1729    -0.1729    -0.1729   112.6700   112.6700   112.6700 
 12     0.2738    -0.4825     0.2738   110.7700   107.6600   110.7700 
 13    -1.3199    -1.3199     0.1184   112.6700   110.7700   110.7700 

AngleAngleTorsion Coeffs

  1   -12.5640   110.7700   110.7700 
  2   -16.1640   110.7700   112.6700 
  3   -16.1640   112.6700   110.7700 
  4   -22.0450   112.6700   112.6700 
  5   -12.5640   110.7700   110.7700 
  6   -16.1640   112.6700   110.7700 
  7   -22.0450   112.6700   112.6700 
  8   -22.0450   112.6700   112.6700 
  9   -16.1640   112.6700   110.7700 
 10   -16.1640   112.6700   110.7700 
 11   -22.0450   112.6700   112.6700 
 12   -22.0450   112.6700   112.6700 
 13   -12.5640   110.7700   110.7700 
 14   -16.1640   110.7700   112.6700 
 15   -16.1640   110.7700   112.6700 
 16   -16.1640   110.7700   112.6700 
 17   -12.5640   110.7700   110.7700 
 18   -22.0450   112.6700   112.6700 
 19   -16.1640   112.6700   110.7700 
 20   -22.0450   112.6700   112.6700 

EndBondTorsion Coeffs

1     0.2130     0.3120     0.0777     0.2130     0.3120     0.0777     1.1010     1.1010 
2     0.0814     0.0591     0.2219     0.2486     0.2422    -0.0925     1.1010     1.5300 
3     0.2486     0.2422    -0.0925     0.0814     0.0591     0.2219     1.5300     1.1010 
4    -0.0732     0.0000     0.0000    -0.0732     0.0000     0.0000     1.5300     1.5300 
5     0.2130     0.3120     0.0777     0.2130     0.3120     0.0777     1.1010     1.1010 
6     0.2486     0.2422    -0.0925     0.0814     0.0591     0.2219     1.5300     1.1010 
7    -0.0732     0.0000     0.0000    -0.0732     0.0000     0.0000     1.5300     1.5300 
8    -0.0732     0.0000     0.0000    -0.0732     0.0000     0.0000     1.5300     1.5300 
9     0.2486     0.2422    -0.0925     0.0814     0.0591     0.2219     1.5300     1.1010 
10     0.2486     0.2422    -0.0925     0.0814     0.0591     0.2219     1.5300     1.1010 
11    -0.0732     0.0000     0.0000    -0.0732     0.0000     0.0000     1.5300     1.5300 
12    -0.0732     0.0000     0.0000    -0.0732     0.0000     0.0000     1.5300     1.5300 
13     0.2130     0.3120     0.0777     0.2130     0.3120     0.0777     1.1010     1.1010 
14     0.0814     0.0591     0.2219     0.2486     0.2422    -0.0925     1.1010     1.5300 
15     0.0814     0.0591     0.2219     0.2486     0.2422    -0.0925     1.1010     1.5300 
16     0.0814     0.0591     0.2219     0.2486     0.2422    -0.0925     1.1010     1.5300 
17     0.2130     0.3120     0.0777     0.2130     0.3120     0.0777     1.1010     1.1010 
18    -0.0732     0.0000     0.0000    -0.0732     0.0000     0.0000     1.5300     1.5300 
19     0.2486     0.2422    -0.0925     0.0814     0.0591     0.2219     1.5300     1.1010 
20    -0.0732     0.0000     0.0000    -0.0732     0.0000     0.0000     1.5300     1.5300 

MiddleBondTorsion Coeffs

  1   -14.2610    -0.5322    -0.4864     1.5300 
  2   -14.8790    -3.6581    -0.3138     1.5300 
  3   -14.8790    -3.6581    -0.3138     1.5300 
  4   -17.7870    -7.1877     0.0000     1.5300 
  5   -14.2610    -0.5322    -0.4864     1.5300 
  6   -14.8790    -3.6581    -0.3138     1.5300 
  7   -17.7870    -7.1877     0.0000     1.5300 
  8   -17.7870    -7.1877     0.0000     1.5300 
  9   -14.8790    -3.6581    -0.3138     1.5300 
 10   -14.8790    -3.6581    -0.3138     1.5300 
 11   -17.7870    -7.1877     0.0000     1.5300 
 12   -17.7870    -7.1877     0.0000     1.5300 
 13   -14.2610    -0.5322    -0.4864     1.5300 
 14   -14.8790    -3.6581    -0.3138     1.5300 
 15   -14.8790    -3.6581    -0.3138     1.5300 
 16   -14.8790    -3.6581    -0.3138     1.5300 
 17   -14.2610    -0.5322    -0.4864     1.5300 
 18   -17.7870    -7.1877     0.0000     1.5300 
 19   -14.8790    -3.6581    -0.3138     1.5300 
 20   -17.7870    -7.1877     0.0000     1.5300 

BondBond13 Coeffs

  1     0.0000     1.1010     1.1010 
  2     0.0000     1.1010     1.5300 
  3     0.0000     1.5300     1.1010 
  4     0.0000     1.5300     1.5300 
  5     0.0000     1.1010     1.1010 
  6     0.0000     1.5300     1.1010 
  7     0.0000     1.5300     1.5300 
  8     0.0000     1.5300     1.5300 
  9     0.0000     1.5300     1.1010 
 10     0.0000     1.5300     1.1010 
 11     0.0000     1.5300     1.5300 
 12     0.0000     1.5300     1.5300 
 13     0.0000     1.1010     1.1010 
 14     0.0000     1.1010     1.5300 
 15     0.0000     1.1010     1.5300 
 16     0.0000     1.1010     1.5300 
 17     0.0000     1.1010     1.1010 
 18     0.0000     1.5300     1.5300 
 19     0.0000     1.5300     1.1010 
 20     0.0000     1.5300     1.5300 

AngleTorsion Coeffs

  1    -0.8085     0.5569    -0.2466    -0.8085     0.5569    -0.2466   110.7700   110.7700 
  2     0.3113     0.4516    -0.1988    -0.2454     0.0000    -0.1136   110.7700   112.6700 
  3    -0.2454     0.0000    -0.1136     0.3113     0.4516    -0.1988   112.6700   110.7700 
  4     0.3886    -0.3139     0.1389     0.3886    -0.3139     0.1389   112.6700   112.6700 
  5    -0.8085     0.5569    -0.2466    -0.8085     0.5569    -0.2466   110.7700   110.7700 
  6    -0.2454     0.0000    -0.1136     0.3113     0.4516    -0.1988   112.6700   110.7700 
  7     0.3886    -0.3139     0.1389     0.3886    -0.3139     0.1389   112.6700   112.6700 
  8     0.3886    -0.3139     0.1389     0.3886    -0.3139     0.1389   112.6700   112.6700 
  9    -0.2454     0.0000    -0.1136     0.3113     0.4516    -0.1988   112.6700   110.7700 
 10    -0.2454     0.0000    -0.1136     0.3113     0.4516    -0.1988   112.6700   110.7700 
 11     0.3886    -0.3139     0.1389     0.3886    -0.3139     0.1389   112.6700   112.6700 
 12     0.3886    -0.3139     0.1389     0.3886    -0.3139     0.1389   112.6700   112.6700 
 13    -0.8085     0.5569    -0.2466    -0.8085     0.5569    -0.2466   110.7700   110.7700 
 14     0.3113     0.4516    -0.1988    -0.2454     0.0000    -0.1136   110.7700   112.6700 
 15     0.3113     0.4516    -0.1988    -0.2454     0.0000    -0.1136   110.7700   112.6700 
 16     0.3113     0.4516    -0.1988    -0.2454     0.0000    -0.1136   110.7700   112.6700 
 17    -0.8085     0.5569    -0.2466    -0.8085     0.5569    -0.2466   110.7700   110.7700 
 18     0.3886    -0.3139     0.1389     0.3886    -0.3139     0.1389   112.6700   112.6700 
 19    -0.2454     0.0000    -0.1136     0.3113     0.4516    -0.1988   112.6700   110.7700 
 20     0.3886    -0.3139     0.1389     0.3886    -0.3139     0.1389   112.6700   112.6700 

Atoms # full

      1      1   1 -0.159000     1.951266586     2.366029121     2.016717998   0   0   0 # c3
      2      1   2 -0.106000     3.230236707     3.219328915     2.016717998   0   0   0 # c2
      3      1   2 -0.106000     4.494266586     2.366029121     2.016717998   0   0   0 # c2
      4      1   2 -0.106000     5.773236707     3.219328915     2.016717998   0   0   0 # c2
      5      1   2 -0.106000     7.037266586     2.366029121     2.016717998   0   0   0 # c2
      6      1   2 -0.106000     8.316236707     3.219328915     2.016717998   0   0   0 # c2
      7      1   2 -0.106000     9.580266586     2.366029121     2.016717998   0   0   0 # c2
      8      1   2 -0.106000    10.859236707     3.219328915     2.016717998   0   0   0 # c2
      9      1   2 -0.106000    12.123266586     2.366029121     2.016717998   0   0   0 # c2
     10      1   2 -0.106000    13.402236707     3.219328915     2.016717998   0   0   0 # c2
     11      1   2 -0.106000    14.666266586     2.366029121     2.016717998   0   0   0 # c2
     12      1   2 -0.053000    15.945236707     3.219328915     2.016717998   0   0   0 # c2
     13      1   2 -0.106000    17.209266586     2.366029121     2.016717998   0   0   0 # c2
     14      1   2 -0.053000    18.488236707     3.219328915     2.016717998   0   0   0 # c2
     15      1   2 -0.106000    19.752266586     2.366029121     2.016717998   0   0   0 # c2
     16      1   2 -0.053000    21.031236707     3.219328915     2.016717998   0   0   0 # c2
     17      1   2 -0.106000    22.295266586     2.366029121     2.016717998   0   0   0 # c2
     18      1   3 -0.053000    23.574236707     3.219328915     2.016717998   0   0   0 # c1
     19      1   2 -0.106000    24.838266586     2.366029121     2.016717998   0   0   0 # c2
     20      1   1 -0.159000    23.555144371     4.099580823     3.261875443   0   0   0 # c3
     21      1   2 -0.053000    26.117236707     3.219328915     2.016717998   0   0   0 # c2
     22      1   2 -0.106000    27.381266586     2.366029121     2.016717998   0   0   0 # c2
     23      1   2 -0.053000    28.660236707     3.219328915     2.016717998   0   0   0 # c2
     24      1   2 -0.106000    29.924266586     2.366029121     2.016717998   0   0   0 # c2
     25      1   3 -0.053000    31.203236707     3.219328915     2.016717998   0   0   0 # c1
     26      1   2 -0.106000    32.467266586     2.366029121     2.016717998   0   0   0 # c2
     27      1   1 -0.159000    31.184144371     4.099580823     3.261875443   0   0   0 # c3
     28      1   3 -0.053000    33.746236707     3.219328915     2.016717998   0   0   0 # c1
     29      1   2 -0.106000    35.010266586     2.366029121     2.016717998   0   0   0 # c2
     30      1   1 -0.159000    33.727144371     4.099580823     3.261875443   0   0   0 # c3
     31      1   3 -0.053000    36.289236707     3.219328915     2.016717998   0   0   0 # c1
     32      1   2 -0.106000    37.553266586     2.366029121     2.016717998   0   0   0 # c2
     33      1   1 -0.159000    36.270144371     4.099580823     3.261875443   0   0   0 # c3
     34      1   3 -0.053000    38.832236707     3.219328915     2.016717998   0   0   0 # c1
     35      1   2 -0.106000    40.096266586     2.366029121     2.016717998   0   0   0 # c2
     36      1   1 -0.159000    38.813144371     4.099580823     3.261875442   0   0   0 # c3
     37      1   2 -0.053000    41.375236707     3.219328915     2.016717998   0   0   0 # c2
     38      1   2 -0.106000    42.639266586     2.366029121     2.016717998   0   0   0 # c2
     39      1   2 -0.053000    43.918236707     3.219328915     2.016717998   0   0   0 # c2
     40      1   2 -0.106000    45.182266586     2.366029121     2.016717998   0   0   0 # c2
     41      1   3 -0.053000    46.461236707     3.219328915     2.016717998   0   0   0 # c1
     42      1   2 -0.106000    47.725266586     2.366029121     2.016717998   0   0   0 # c2
     43      1   1 -0.159000    46.442144371     4.099580823     3.261875443   0   0   0 # c3
     44      1   3 -0.053000    49.004236707     3.219328915     2.016717998   0   0   0 # c1
     45      1   2 -0.106000    50.268266586     2.366029121     2.016717998   0   0   0 # c2
     46      1   1 -0.159000    48.985144371     4.099580823     3.261875443   0   0   0 # c3
     47      1   3 -0.053000    51.547236707     3.219328915     2.016717998   0   0   0 # c1
     48      1   2 -0.106000    52.811266586     2.366029121     2.016717998   0   0   0 # c2
     49      1   1 -0.159000    51.528144371     4.099580823     3.261875443   0   0   0 # c3
     50      1   2 -0.053000    54.090236707     3.219328915     2.016717998   0   0   0 # c2
     51      1   2 -0.106000    55.354266586     2.366029121     2.016717998   0   0   0 # c2
     52      1   2 -0.106000    56.633236707     3.219328915     2.016717998   0   0   0 # c2
     53      1   2 -0.106000    57.897266586     2.366029121     2.016717998   0   0   0 # c2
     54      1   2 -0.106000    59.176236707     3.219328915     2.016717998   0   0   0 # c2
     55      1   2 -0.106000    60.440266586     2.366029121     2.016717998   0   0   0 # c2
     56      1   2 -0.106000    61.719236707     3.219328915     2.016717998   0   0   0 # c2
     57      1   2 -0.106000    62.983266586     2.366029121     2.016717998   0   0   0 # c2
     58      1   2 -0.106000    64.262236707     3.219328915     2.016717998   0   0   0 # c2
     59      1   2 -0.106000    65.526266586     2.366029121     2.016717998   0   0   0 # c2
     60      1   2 -0.106000    66.805236707     3.219328915     2.016717998   0   0   0 # c2
     61      1   2 -0.106000    68.069266586     2.366029121     2.016717998   0   0   0 # c2
     62      1   1 -0.159000    69.348236707     3.219328915     2.016717998   0   0   0 # c3
     63      1   4  0.053000     1.534087156     2.306628244     0.957457494   0   0   0 # hc
     64      1   4  0.053000     1.176577889     2.842481731     2.704068192   0   0   0 # hc
     65      1   4  0.053000     2.194821377     1.316284491     2.388628244   0   0   0 # hc
     66      1   4  0.053000     3.232047064     3.885275811     1.091455111   0   0   0 # hc
     67      1   4  0.053000     3.215964404     3.877353281     2.947524203   0   0   0 # hc
     68      1   4  0.053000     4.508538889     1.708004755     2.947524203   0   0   0 # hc
     69      1   4  0.053000     4.492456229     1.700082225     1.091455111   0   0   0 # hc
     70      1   4  0.053000     5.775047064     3.885275811     1.091455111   0   0   0 # hc
     71      1   4  0.053000     5.758964404     3.877353281     2.947524203   0   0   0 # hc
     72      1   4  0.053000     7.051538889     1.708004755     2.947524203   0   0   0 # hc
     73      1   4  0.053000     7.035456229     1.700082225     1.091455111   0   0   0 # hc
     74      1   4  0.053000     8.318047064     3.885275811     1.091455111   0   0   0 # hc
     75      1   4  0.053000     8.301964404     3.877353281     2.947524203   0   0   0 # hc
     76      1   4  0.053000     9.594538889     1.708004755     2.947524203   0   0   0 # hc
     77      1   4  0.053000     9.578456229     1.700082225     1.091455111   0   0   0 # hc
     78      1   4  0.053000    10.861047064     3.885275811     1.091455111   0   0   0 # hc
     79      1   4  0.053000    10.844964404     3.877353281     2.947524203   0   0   0 # hc
     80      1   4  0.053000    12.137538889     1.708004755     2.947524203   0   0   0 # hc
     81      1   4  0.053000    12.121456229     1.700082225     1.091455111   0   0   0 # hc
     82      1   4  0.053000    13.404047064     3.885275811     1.091455111   0   0   0 # hc
     83      1   4  0.053000    13.387964404     3.877353281     2.947524203   0   0   0 # hc
     84      1   4  0.053000    14.680538889     1.708004755     2.947524203   0   0   0 # hc
     85      1   4  0.053000    14.664456229     1.700082225     1.091455111   0   0   0 # hc
     86      1   4  0.053000    15.947047064     3.885275811     1.091455111   0   0   0 # hc
     87      1   4  0.053000    15.930964400     3.877353290     2.947524220   0   0   0 # hc
     88      1   4  0.053000    17.223538889     1.708004755     2.947524203   0   0   0 # hc
     89      1   4  0.053000    17.207456229     1.700082225     1.091455111   0   0   0 # hc
     90      1   4  0.053000    18.490047064     3.885275811     1.091455111   0   0   0 # hc
     91      1   4  0.053000    18.473964400     3.877353290     2.947524220   0   0   0 # hc
     92      1   4  0.053000    19.766538889     1.708004755     2.947524203   0   0   0 # hc
     93      1   4  0.053000    19.750456229     1.700082225     1.091455111   0   0   0 # hc
     94      1   4  0.053000    21.033047064     3.885275811     1.091455111   0   0   0 # hc
     95      1   4  0.053000    21.016964400     3.877353290     2.947524220   0   0   0 # hc
     96      1   4  0.053000    22.309538889     1.708004755     2.947524203   0   0   0 # hc
     97      1   4  0.053000    22.293456229     1.700082225     1.091455111   0   0   0 # hc
     98      1   4  0.053000    23.576047064     3.885275811     1.091455111   0   0   0 # hc
     99      1   4  0.053000    24.852538889     1.708004755     2.947524203   0   0   0 # hc
    100      1   4  0.053000    24.836456229     1.700082225     1.091455111   0   0   0 # hc
    101      1   4  0.053000    23.011028529     5.074138558     3.029980794   0   0   0 # hc
    102      1   4  0.053000    23.015029731     3.554051918     4.104653198   0   0   0 # hc
    103      1   4  0.053000    24.625102650     4.328576117     3.581797923   0   0   0 # hc
    104      1   4  0.053000    26.119047064     3.885275811     1.091455111   0   0   0 # hc
    105      1   4  0.053000    26.102964400     3.877353290     2.947524220   0   0   0 # hc
    106      1   4  0.053000    27.395538889     1.708004755     2.947524203   0   0   0 # hc
    107      1   4  0.053000    27.379456229     1.700082225     1.091455111   0   0   0 # hc
    108      1   4  0.053000    28.662047064     3.885275811     1.091455111   0   0   0 # hc
    109      1   4  0.053000    28.645964400     3.877353290     2.947524220   0   0   0 # hc
    110      1   4  0.053000    29.938538889     1.708004755     2.947524203   0   0   0 # hc
    111      1   4  0.053000    29.922456229     1.700082225     1.091455111   0   0   0 # hc
    112      1   4  0.053000    31.205047064     3.885275811     1.091455111   0   0   0 # hc
    113      1   4  0.053000    32.481538889     1.708004755     2.947524203   0   0   0 # hc
    114      1   4  0.053000    32.465456229     1.700082225     1.091455111   0   0   0 # hc
    115      1   4  0.053000    30.640028529     5.074138558     3.029980794   0   0   0 # hc
    116      1   4  0.053000    30.644029731     3.554051918     4.104653198   0   0   0 # hc
    117      1   4  0.053000    32.254102650     4.328576117     3.581797923   0   0   0 # hc
    118      1   4  0.053000    33.748047064     3.885275811     1.091455111   0   0   0 # hc
    119      1   4  0.053000    35.024538889     1.708004755     2.947524203   0   0   0 # hc
    120      1   4  0.053000    35.008456229     1.700082225     1.091455111   0   0   0 # hc
    121      1   4  0.053000    33.183028529     5.074138558     3.029980794   0   0   0 # hc
    122      1   4  0.053000    33.187029731     3.554051918     4.104653198   0   0   0 # hc
    123      1   4  0.053000    34.797102650     4.328576117     3.581797923   0   0   0 # hc
    124      1   4  0.053000    36.291047064     3.885275811     1.091455111   0   0   0 # hc
    125      1   4  0.053000    37.567538889     1.708004755     2.947524203   0   0   0 # hc
    126      1   4  0.053000    37.551456229     1.700082225     1.091455111   0   0   0 # hc
    127      1   4  0.053000    35.726028529     5.074138558     3.029980794   0   0   0 # hc
    128      1   4  0.053000    35.730029731     3.554051918     4.104653198   0   0   0 # hc
    129      1   4  0.053000    37.340102650     4.328576117     3.581797923   0   0   0 # hc
    130      1   4  0.053000    38.834047064     3.885275811     1.091455111   0   0   0 # hc
    131      1   4  0.053000    40.110538889     1.708004755     2.947524203   0   0   0 # hc
    132      1   4  0.053000    40.094456229     1.700082225     1.091455111   0   0   0 # hc
    133      1   4  0.053000    38.269028528     5.074138558     3.029980794   0   0   0 # hc
    134      1   4  0.053000    38.273029730     3.554051918     4.104653198   0   0   0 # hc
    135      1   4  0.053000    39.883102649     4.328576117     3.581797923   0   0   0 # hc
    136      1   4  0.053000    41.377047064     3.885275811     1.091455111   0   0   0 # hc
    137      1   4  0.053000    41.360964400     3.877353290     2.947524220   0   0   0 # hc
    138      1   4  0.053000    42.653538889     1.708004755     2.947524203   0   0   0 # hc
    139      1   4  0.053000    42.637456229     1.700082225     1.091455111   0   0   0 # hc
    140      1   4  0.053000    43.920047064     3.885275811     1.091455111   0   0   0 # hc
    141      1   4  0.053000    43.903964400     3.877353290     2.947524220   0   0   0 # hc
    142      1   4  0.053000    45.196538889     1.708004755     2.947524203   0   0   0 # hc
    143      1   4  0.053000    45.180456229     1.700082225     1.091455111   0   0   0 # hc
    144      1   4  0.053000    46.463047064     3.885275811     1.091455111   0   0   0 # hc
    145      1   4  0.053000    47.739538889     1.708004755     2.947524203   0   0   0 # hc
    146      1   4  0.053000    47.723456229     1.700082225     1.091455111   0   0   0 # hc
    147      1   4  0.053000    45.898028529     5.074138558     3.029980794   0   0   0 # hc
    148      1   4  0.053000    45.902029731     3.554051918     4.104653198   0   0   0 # hc
    149      1   4  0.053000    47.512102650     4.328576117     3.581797923   0   0   0 # hc
    150      1   4  0.053000    49.006047064     3.885275811     1.091455111   0   0   0 # hc
    151      1   4  0.053000    50.282538889     1.708004755     2.947524203   0   0   0 # hc
    152      1   4  0.053000    50.266456229     1.700082225     1.091455111   0   0   0 # hc
    153      1   4  0.053000    48.441028529     5.074138558     3.029980794   0   0   0 # hc
    154      1   4  0.053000    48.445029731     3.554051918     4.104653198   0   0   0 # hc
    155      1   4  0.053000    50.055102650     4.328576117     3.581797923   0   0   0 # hc
    156      1   4  0.053000    51.549047064     3.885275811     1.091455111   0   0   0 # hc
    157      1   4  0.053000    52.825538889     1.708004755     2.947524203   0   0   0 # hc
    158      1   4  0.053000    52.809456229     1.700082225     1.091455111   0   0   0 # hc
    159      1   4  0.053000    50.984028529     5.074138558     3.029980794   0   0   0 # hc
    160      1   4  0.053000    50.988029731     3.554051918     4.104653198   0   0   0 # hc
    161      1   4  0.053000    52.598102650     4.328576117     3.581797923   0   0   0 # hc
    162      1   4  0.053000    54.092047064     3.885275811     1.091455111   0   0   0 # hc
    163      1   4  0.053000    54.075964400     3.877353290     2.947524220   0   0   0 # hc
    164      1   4  0.053000    55.368538889     1.708004755     2.947524203   0   0   0 # hc
    165      1   4  0.053000    55.352456229     1.700082225     1.091455111   0   0   0 # hc
    166      1   4  0.053000    56.635047064     3.885275811     1.091455111   0   0   0 # hc
    167      1   4  0.053000    56.618964404     3.877353281     2.947524203   0   0   0 # hc
    168      1   4  0.053000    57.911538889     1.708004755     2.947524203   0   0   0 # hc
    169      1   4  0.053000    57.895456229     1.700082225     1.091455111   0   0   0 # hc
    170      1   4  0.053000    59.178047064     3.885275811     1.091455111   0   0   0 # hc
    171      1   4  0.053000    59.161964404     3.877353281     2.947524203   0   0   0 # hc
    172      1   4  0.053000    60.454538889     1.708004755     2.947524203   0   0   0 # hc
    173      1   4  0.053000    60.438456229     1.700082225     1.091455111   0   0   0 # hc
    174      1   4  0.053000    61.721047064     3.885275811     1.091455111   0   0   0 # hc
    175      1   4  0.053000    61.704964404     3.877353281     2.947524203   0   0   0 # hc
    176      1   4  0.053000    62.997538889     1.708004755     2.947524203   0   0   0 # hc
    177      1   4  0.053000    62.981456229     1.700082225     1.091455111   0   0   0 # hc
    178      1   4  0.053000    64.264047064     3.885275811     1.091455111   0   0   0 # hc
    179      1   4  0.053000    64.247964404     3.877353281     2.947524203   0   0   0 # hc
    180      1   4  0.053000    65.540538889     1.708004755     2.947524203   0   0   0 # hc
    181      1   4  0.053000    65.524456229     1.700082225     1.091455111   0   0   0 # hc
    182      1   4  0.053000    66.807047064     3.885275811     1.091455111   0   0   0 # hc
    183      1   4  0.053000    66.790964404     3.877353281     2.947524203   0   0   0 # hc